 Gaussian 16, Revision A.03,
 Gaussian 16:  ES64L-G16RevA.03 25-Dec-2016

 ---------------
 #P B3LYP/6-31G*
 ---------------

 ----------
 test-water
 ----------
 Symbolic Z-matrix:
 Charge =  0 Multiplicity = 1

                         Standard orientation:
 ---------------------------------------------------------------------
 Center     Atomic      Atomic             Coordinates (Angstroms)
 Number     Number       Type             X           Y           Z
 ---------------------------------------------------------------------
      1          8           0       -0.000000    0.000000    0.117200
      2          1           0        0.000000    0.757000   -0.468800
      3          1           0       -0.000000   -0.757000   -0.468800
 ---------------------------------------------------------------------

 SCF Done:  E(RB3LYP) =  -76.4087114096     A.U. after    9 cycles

 The electronic state is 1-A1.
 Alpha  occ. eigenvalues --  -19.13574  -1.00209  -0.52293  -0.37122  -0.29173
 Alpha virt. eigenvalues --    0.06586   0.15239   0.78089   0.86966   0.89092
 Alpha virt. eigenvalues --    0.89581   1.06934   1.19220   1.72910   1.74316
 Alpha virt. eigenvalues --    1.77907   2.29456   2.59816   3.55930

 Mulliken charges:
               1
     1  O   -0.778276
     2  H    0.389138
     3  H    0.389138
 Sum of Mulliken charges =   0.00000

 Dipole moment (field-independent basis, Debye):
    X=             -0.0000    Y=             -0.0000    Z=             -2.0784  Tot=              2.0784
 Quadrupole moment (field-independent basis, Debye-Ang):
   XX=             -7.1811   YY=             -4.2639   ZZ=             -6.0067
   XY=              0.0000   XZ=              0.0000   YZ=              0.0000

 Normal termination of Gaussian 16 at Tue Jan 19 09:34:05 2021.
